# vtk DataFile Version 4.0
vtk output
ASCII
DATASET POLYDATA
POINTS 1650 float
-16 4 -12.0774 -16 3.92262 -12 -15.87 4 -12 
-18 4 -12.4516 -18 3.51308 -12 -20 4 -12.5563 
-20 3.26175 -12 -22 4 -12.3394 -22 3.43291 -12 
-22.8267 4 -12 -14 6 -12.3702 -14 5.5562 -12 
-13.7066 6 -12 -16 6 -13.209 -18 6 -13.0859 
-20 6 -13 -22 6 -12.8225 -24 5.88783 -12 
-24 6 -12.0313 -24.0463 6 -12 -14 8 -13.2223 
-13.2471 8 -12 -16 8 -13.7381 -18 8 -13.1951 
-20 8 -13 -22 8 -12.7058 -23.4003 8 -12 
-24 6.15555 -12 -14 10 -12.3702 -13.7066 10 -12 
-16 10 -13.209 -18 10 -13.0859 -20 10 -13 
-22 10 -12.5997 -22.9523 10 -12 -14 10.5333 -12 
-15.0182 12 -12 -16 12 -12.6672 -18 12 -13 
-20 12 -12.9141 -22 12 -12.2835 -22.3873 12 -12 
-16 13.6532 -12 -16.4137 14 -12 -18 14 -12.5563 
-20 14 -12.3394 -20.66 14 -12 -22 12.5694 -12 
-18 14.7091 -12 -20 14.4833 -12 -28 -14 -10.2835 
-28 -14.3702 -10 -27.5315 -14 -10 -30 -14 -10.4858 
-30 -14.71 -10 -31.1361 -14 -10 -26 -12 -10.0774 
-26 -12.1387 -10 -25.9226 -12 -10 -28 -12 -10.9141 
-30 -12 -10.6672 -30.9818 -12 -10 -26 -10 -10.0774 
-25.9226 -10 -10 -28 -10 -10.9141 -30 -10 -10.4516 
-30.4869 -10 -10 -26 -9.83721 -10 -27.3793 -8 -10 
-28 -8 -10.3394 -29.6362 -8 -10 -30 -8.29121 -10 
-28 -7.40028 -10 -24 0 -10.6672 -24 -1.02698 -10 
-22.028 0 -10 -26 0 -10.4858 -26 -1.47923 -10 
-26.8771 0 -10 -20 2 -10.7071 -20 1.37653 -10 
-18.9367 2 -10 -22 2 -11.1844 -22 0.0164185 -10 
-24 2 -11.0859 -26 2 -10.5997 -26.9523 2 -10 
-14 4 -10.13 -14 3.92262 -10 -13.9226 4 -10 
-16 3 -10 -18 2.46384 -10 -24 4 -11.5362 
-26 4 -10.6841 -26.9095 4 -10 -13.0859 6 -10 
-26 6 -10.7926 -26.924 6 -10 -12.9141 8 -10 
-24 8 -11.6606 -26 8 -10.6841 -26.8734 8 -10 
-12.8906 10 -10 -24 10 -11.3159 -26 10 -10.2835 
-26.3702 10 -10 -14 12 -10.6982 -13.5792 12 -10 
-24 12 -10.7066 -24.8575 12 -10 -26 10.4961 -10 
-14 12.5506 -10 -16 14 -11.6771 -15.1467 14 -10 
-22 14 -11.2474 -23.4067 14 -10 -24 13.1287 -10 
-16 14.9605 -10 -18 16 -10.4703 -17.4474 16 -10 
-20 16 -10.8533 -22 16 -10.2214 -22.2807 16 -10 
-18 16.4195 -10 -20 16.8843 -10 -22 16.2807 -10 
-28 -16 -8.43887 -28 -16.4211 -8 -27.5418 -16 -8 
-30 -16 -9 -30 -17 -8 -32 -16 -8.18794 
-32 -16.1879 -8 -32.1528 -16 -8 -26 -14 -8.4685 
-26 -14.3873 -8 -25.7165 -14 -8 -32 -14 -9.39748 
-32.7887 -14 -8 -25.0859 -12 -8 -32 -12 -8.77946 
-32.4638 -12 -8 -25.0859 -10 -8 -31.6606 -10 -8 
-32 -10.8267 -8 -26 -8 -8.98182 -25.3328 -8 -8 
-30 -8 -9.89113 -31.2939 -8 -8 -26 -6 -8.53925 
-25.4608 -6 -8 -28 -6 -9.29415 -30 -6 -8.89211 
-31 -6 -8 -26 -4 -8.86451 -24.8842 -4 -8 
-28 -4 -9.08593 -30 -4 -8.55635 -30.7091 -4 -8 
-24 -2 -9 -24 -3 -8 -23.184 -2 -8 
-26 -2 -9.80136 -28 -2 -9.29415 -30 -2 -8.45159 
-30.4869 -2 -8 -22 0 -9.97624 -22 -0.923401 -8 
-20.9095 0 -8 -28 0 -9.40028 -30 0 -8.39838 
-30.3984 0 -8 -18 2 -8.82671 -18 1.66056 -8 
-17.4329 2 -8 -20 0.684151 -8 -28 2 -9.31585 
-30 2 -8.07739 -30.0774 2 -8 -14 3.92262 -8 
-13.9226 4 -8 -16 2.79105 -8 -28 4 -9.10789 
-29.2702 4 -8 -30 2.19691 -8 -12.9713 6 -8 
-28 6 -8.96341 -28.8921 6 -8 -12.2934 8 -8 
-28 8 -8.87337 -28.6841 8 -8 -12 10 -8.46299 
-12 8.95319 -8 -11.537 10 -8 -28 10 -8.19708 
-28.1421 10 -8 -12 11.0468 -8 -12.3702 12 -8 
-26 12 -8.85747 -26.7066 12 -8 -28 10.2072 -8 
-14 13.8029 -8 -14.1879 14 -8 -24 14 -9.40674 
-25.2474 14 -8 -26 12.9504 -8 -16 16 -8.54482 
-15.2913 16 -8 -24 16 -8.28071 -24.2214 16 -8 
-14 18 -8.33944 -14 17.2657 -8 -13.34 18 -8 
-16 18 -8.54689 -18 18 -8.56825 -20 18 -8.816 
-22 18 -8.28071 -22.2807 18 -8 -24 16.2807 -8 
-14 20 -8.48576 -12.6489 20 -8 -16 20 -8.48576 
-17.8658 20 -8 -18 19.8612 -8 -20 18.9064 -8 
-22 18.2214 -8 -14 20.71 -8 -16 20.71 -8 
-30 -18 -6.92404 -30 -18.7925 -6 -28.0257 -18 -6 
-31.9743 -18 -6 -28 -17.9836 -6 -26.8156 -16 -6 
-32 -17.9803 -6 -32.884 -16 -6 -26 -14.5671 -6 
-25.6606 -14 -6 -33 -14 -6 -25.0859 -12 -6 
-32.9141 -12 -6 -25 -10 -6 -32 -10 -7.40028 
-32.7058 -10 -6 -25 -8 -6 -32 -8 -6.95229 
-32.5997 -8 -6 -24.7059 -6 -6 -32 -6 -6.86243 
-32.5997 -6 -6 -24 -4 -6.65998 -24 -4.59972 -6 
-23.6606 -4 -6 -32 -4 -6.48333 -32.3394 -4 -6 
-22.6841 -2 -6 -31.6606 -2 -6 -32 -3 -6 
-22 -1.12663 -6 -20.8734 0 -6 -31.2941 0 -6 
-18 1.71648 -6 -17.6127 2 -6 -20 0.684151 -6 
-31 2 -6 -14 4 -7.86126 -15.1793 4 -6 
-16 3.29341 -6 -30 4 -7.12852 -30.7059 4 -6 
-14 5.301 -6 -13.2807 6 -6 -30 6 -6.31235 
-30.205 6 -6 -8 8 -6.1421 -8 7.80292 -6 
-7.80292 8 -6 -10 8 -6.64184 -10 7.24187 -6 
-12 8 -7.51539 -12 7 -6 -29.2941 8 -6 
-30 6.39838 -6 -8 10 -6.33944 -7.51667 10 -6 
-10 10 -7.10939 -28.7059 10 -6 -8 10.9124 -6 
-8.64104 12 -6 -10 12 -6.79105 -12 12 -7.7066 
-27.5792 12 -6 -28 11.3241 -6 -10 14 -6.28352 
-9.61275 14 -6 -12 14 -7.02868 -14 14 -7.84718 
-26 14 -6.7398 -26.4208 14 -6 -10 14.668 -6 
-10.7787 16 -6 -12 16 -6.79105 -14 16 -7.44365 
-24.8921 16 -6 -26 14.5506 -6 -12 18 -7.2474 
-10.6475 18 -6 -22.9634 18 -6 -24 16.9634 -6 
-12 20 -7.71685 -10.1286 20 -6 -18 20 -7.95595 
-20 20 -6.73367 -20.6228 20 -6 -22 18.8921 -6 
-12 22 -6.57038 -11.2663 22 -6 -14 22 -7 
-16 22 -6.96341 -18 22 -6.28071 -18.2807 22 -6 
-20 20.5704 -6 -12 22.5704 -6 -14 23 -6 
-16 22.8921 -6 -18 22.2214 -6 -28 -18 -5.97204 
-28 -18.9818 -4 -27.3328 -18 -4 -30 -19.8789 -4 
-32 -18 -5.96536 -32 -18.7091 -4 -32.5563 -18 -4 
-26.9141 -16 -4 -33 -16 -4 -26 -14 -5.17329 
-26.4638 -14 -4 -33 -14 -4 -26 -13 -4 
-25.5362 -12 -4 -33 -12 -4 -25.0859 -10 -4 
-33 -10 -4 -25 -8 -4 -33 -8 -4 
-24.5997 -6 -4 -33 -6 -4 -24 -5 -4 
-23.4003 -4 -4 -32.9141 -4 -4 -22.5997 -2 -4 
-32 -2 -5.40028 -32.7058 -2 -4 -22 -1.17329 -4 
-20.9634 0 -4 -32 0 -4.59972 -32.3394 0 -4 
-18 2 -5.33196 -18.6785 2 -4 -20 0.892113 -4 
-31.6606 2 -4 -32 1 -4 -16 4 -4.87131 
-16.5704 4 -4 -18 2.62347 -4 -31.2941 4 -4 
-8 6 -4.37022 -8 5.67524 -4 -7.5039 6 -4 
-9.41399 6 -4 -14 6 -5.24391 -14.8843 6 -4 
-16 4.65023 -4 -30.791 6 -4 -6 8 -4.37022 
-6 7.5039 -4 -5.71648 8 -4 -10 6.13101 -4 
-12 7.2474 -4 -14 7.19981 -4 -29.6606 8 -4 
-30 7.43291 -4 -6 10 -4.70911 -5.44365 10 -4 
-29 10 -4 -6 12 -4.15996 -5.85274 12 -4 
-8 12 -5.57918 -28 12 -4.91244 -28.3394 12 -4 
-6 12.2978 -4 -7.04513 14 -4 -8 14 -4.7526 
-27 14 -4 -28 12.5068 -4 -8 15.34 -4 
-10 16 -5.37653 -8.43887 16 -4 -25.3765 16 -4 
-26 15.2929 -4 -10 18 -5.3215 -8.85326 18 -4 
-23.3215 18 -4 -24 17.3765 -4 -10 20 -5.83991 
-8.88253 20 -4 -21.1467 20 -4 -22 19.1467 -4 
-10 22 -4.57978 -9.63456 22 -4 -19.3525 22 -4 
-20 21.3215 -4 -10 22.4389 -4 -12 24 -4.19708 
-11.8029 24 -4 -14 24 -4.82671 -16 24 -4.48333 
-16.66 24 -4 -18 23.2474 -4 -12 24.1421 -4 
-14 24.5997 -4 -16 24.3394 -4 -28 -20 -2.29783 
-28 -20.1473 -2 -27.84 -20 -2 -30 -20 -3.63427 
-30 -20.4858 -2 -30.71 -20 -2 -26.791 -18 -2 
-32 -18.8267 -2 -32.5997 -18 -2 -26.5997 -16 -2 
-33 -16 -2 -26.4858 -14 -2 -33 -14 -2 
-26 -12.3657 -2 -25.8789 -12 -2 -33 -12 -2 
-25.1951 -10 -2 -33 -10 -2 -24.9141 -8 -2 
-33 -8 -2 -24.3394 -6 -2 -33 -6 -2 
-24 -5.43292 -2 -23.209 -4 -2 -33 -4 -2 
-22.3394 -2 -2 -33 -2 -2 -22 -1.51667 -2 
-20.8921 0 -2 -32.9141 0 -2 -20 0.963409 -2 
-19 2 -2 -32 2 -3.31405 -32.5997 2 -2 
-18 3.03659 -2 -17.1079 4 -2 -31.8789 4 -2 
-32 3.70239 -2 -6 6 -2.4961 -6 5.62978 -2 
-5.71648 6 -2 -8 4.5423 -2 -9.95507 6 -2 
-16 5.68765 -2 -15.7878 6 -2 -31.1094 6 -2 
-5.08593 8 -2 -10 6.04153 -2 -12 8 -2.56937 
-11.6622 8 -2 -14 8 -3.10322 -14.8624 8 -2 
-30 8 -3 -30.3394 8 -2 -4.91407 10 -2 
-12 8.30603 -2 -14 8.78806 -2 -29.2941 10 -2 
-30 8.59972 -2 -4.89061 12 -2 -28.5997 12 -2 
-6 14 -3.0247 -5.2464 14 -2 -27.3159 14 -2 
-28 12.9523 -2 -6 15.9743 -2 -8 16 -3.62128 
-6.01409 16 -2 -26 16 -2.66804 -26.2835 16 -2 
-8 18 -3.03948 -7.10789 18 -2 -24 18 -2.66804 
-24.3702 18 -2 -26 16.3702 -2 -8 20 -2.35204 
-7.79495 20 -2 -21.4608 20 -2 -22 19.4607 -2 
-24 18.2835 -2 -8 20.3123 -2 -9.14674 22 -2 
-20 22 -2.66804 -20.2835 22 -2 -10 22.8533 -2 
-11.5167 24 -2 -18 24 -2.56937 -18.3702 24 -2 
-20 22.3702 -2 -12 24.3394 -2 -14 24.9141 -2 
-16 24.9141 -2 -18 24.2835 -2 -28 -20.5563 0 
-27.2909 -20 0 -30 -20.5997 0 -30.8267 -20 0 
-26 -18 -0.373778 -26 -18.3124 0 -25.795 -18 0 
-32 -18.8267 0 -32.5997 -18 0 -26 -16 -1 
-25.4003 -16 0 -33 -16 0 -26 -14 -1.12286 
-25.4003 -14 0 -33 -14 0 -25.209 -12 0 
-33 -12 0 -24.791 -10 0 -33 -10 0 
-24.3394 -8 0 -33 -8 0 -24 -6 -1.23406 
-24 -7.23405 0 -23.4531 -6 0 -33 -6 0 
-22.5469 -4 0 -33 -4 0 -22 -2 -1.23406 
-22 -3 0 -21.4531 -2 0 -33 -2 0 
-20.4208 0 0 -33 0 0 -20 0.55056 0 
-18.8921 2 0 -32.7058 2 0 -18 3.09046 0 
-17.3159 4 0 -31.6606 4 0 -32 3.40028 0 
-6 5.17329 0 -5.40028 6 0 -8 4.01207 0 
-10 6 -1.84445 -10 5.51667 0 -10.3394 6 0 
-16 6 -1.60162 -16.7059 6 0 -31.0859 6 0 
-5 8 0 -11.3582 8 0 -16 8 -0.811062 
-16.5563 8 0 -30.5997 8 0 -4.80493 10 0 
-12 8.75813 0 -14 10 -0.506836 -13.5167 10 0 
-16 10 -0.292122 -16.2684 10 0 -29.4003 10 0 
-30 9 0 -4.53388 12 0 -14 10.4389 0 
-16 10.6162 0 -28.5997 12 0 -4.80493 14 0 
-27.4003 14 0 -28 13 0 -6 16 -1.97431 
-5.29415 16 0 -26.5563 16 0 -6 17.4003 0 
-6.33944 18 0 -24.3123 18 0 -26 16.7091 0 
-7.31585 20 0 -21.3368 20 0 -22 19.1733 0 
-24 18.205 0 -8 20.8734 0 -9.12663 22 0 
-20.5997 22 0 -10 22.6842 0 -12 23.6606 0 
-12 24 -1 -12.5997 24 0 -18.8267 24 0 
-20 22.8267 0 -14 24.7058 0 -16 25 0 
-18 24.5997 0 -28 -20.5997 2 -27.1733 -20 2 
-30 -20.5563 2 -30.7091 -20 2 -26 -18.8267 2 
-25.4003 -18 2 -32 -18.4833 2 -32.3394 -18 2 
-25 -16 2 -32.9141 -16 2 -24.9141 -14 2 
-33 -14 2 -24.4638 -12 2 -33 -12 2 
-24 -10 1.43292 -24 -10.8267 2 -23.6606 -10 2 
-33 -10 2 -24 -8 0.567082 -23.209 -8 2 
-33 -8 2 -22.5469 -6 2 -33 -6 2 
-22 -4 1 -22 -5 2 -21.4531 -4 2 
-33 -4 2 -20.5469 -2 2 -33 -2 2 
-20 0 0.912955 -20 -0.936661 2 -19.5362 0 2 
-32.9141 0 2 -18.6841 2 2 -32.3394 2 2 
-18 3.04771 2 -17.4003 4 2 -31.2941 4 2 
-32 2.59972 2 -6 5.51667 2 -5.66056 6 2 
-8 4.01207 2 -10 5.12663 2 -10.6841 6 2 
-17 6 2 -30.9141 6 2 -5.08593 8 2 
-11.6606 8 2 -17 8 2 -30.3394 8 2 
-4.91407 10 2 -12 8.48333 2 -13.1079 10 2 
-16.9696 10 2 -29.2941 10 2 -30 8.59972 2 
-4.80493 12 2 -14 11.0471 2 -16 12 1.0883 
[...]
POINT_DATA 1650
SCALARS scalars unsigned_short
LOOKUP_TABLE default
1 1 1 1 1 1 1 1 1 
1 1 1 1 1 1 1 1 1 
1 1 1 1 1 1 1 1 1 
1 1 1 1 1 1 1 1 1 
1 1 1 1 1 1 1 1 1 
1 1 1 1 1 1 1 1 1 
1 1 1 1 1 1 1 1 1 
1 1 1 1 1 1 1 1 1 
1 1 1 1 1 1 1 1 1 
1 1 1 1 1 1 1 1 1 
1 1 1 1 1 1 1 1 1 
1 1 1 1 1 1 1 1 1 
1 1 1 1 1 1 1 1 1 
1 1 1 1 1 1 1 1 1 
1 1 1 1 1 1 1 1 1 
1 1 1 1 1 1 1 1 1 
1 1 1 1 1 1 1 1 1 
1 1 1 1 1 1 1 1 1 
1 1 1 1 1 1 1 1 1 
1 1 1 1 1 1 1 1 1 
1 1 1 1 1 1 1 1 1 
1 1 1 1 1 1 1 1 1 
1 1 1 1 1 1 1 1 1 
1 1 1 1 1 1 1 1 1 
1 1 1 1 1 1 1 1 1 
1 1 1 1 1 1 1 1 1 
1 1 1 1 1 1 1 1 1 
1 1 1 1 1 1 1 1 1 
1 1 1 1 1 1 1 1 1 
1 1 1 1 1 1 1 1 1 
1 1 1 1 1 1 1 1 1 
1 1 1 1 1 1 1 1 1 
1 1 1 1 1 1 1 1 1 
1 1 1 1 1 1 1 1 1 
1 1 1 1 1 1 1 1 1 
1 1 1 1 1 1 1 1 1 
1 1 1 1 1 1 1 1 1 
1 1 1 1 1 1 1 1 1 
1 1 1 1 1 1 1 1 1 
1 1 1 1 1 1 1 1 1 
1 1 1 1 1 1 1 1 1 
1 1 1 1 1 1 1 1 1 
1 1 1 1 1 1 1 1 1 
1 1 1 1 1 1 1 1 1 
1 1 1 1 1 1 1 1 1 
1 1 1 1 1 1 1 1 1 
1 1 1 1 1 1 1 1 1 
1 1 1 1 1 1 1 1 1 
1 1 1 1 1 1 1 1 1 
1 1 1 1 1 1 1 1 1 
1 1 1 1 1 1 1 1 1 
1 1 1 1 1 1 1 1 1 
1 1 1 1 1 1 1 1 1 
1 1 1 1 1 1 1 1 1 
1 1 1 1 1 1 1 1 1 
1 1 1 1 1 1 1 1 1 
1 1 1 1 1 1 1 1 1 
1 1 1 1 1 1 1 1 1 
1 1 1 1 1 1 1 1 1 
1 1 1 1 1 1 1 1 1 
1 1 1 1 1 1 1 1 1 
1 1 1 1 1 1 1 1 1 
1 1 1 1 1 1 1 1 1 
1 1 1 1 1 1 1 1 1 
1 1 1 1 1 1 1 1 1 
1 1 1 1 1 1 1 1 1 
1 1 1 1 1 1 1 1 1 
1 1 1 1 1 1 1 1 1 
1 1 1 1 1 1 1 1 1 
1 1 1 1 1 1 1 1 1 
1 1 1 1 1 1 1 1 1 
1 1 1 1 1 1 1 1 1 
1 1 1 1 1 1 1 1 1 
1 1 1 1 1 1 1 1 1 
1 1 1 1 1 1 1 1 1 
1 1 1 1 1 1 1 1 1 
1 1 1 1 1 1 1 1 1 
1 1 1 1 1 1 1 1 1 
1 1 1 1 1 1 1 1 1 
1 1 1 1 1 1 1 1 1 
1 1 1 1 1 1 1 1 1 
1 1 1 1 1 1 1 1 1 
1 1 1 1 1 1 1 1 1 
1 1 1 1 1 1 1 1 1 
1 1 1 1 1 1 1 1 1 
1 1 1 1 1 1 1 1 1 
1 1 1 1 1 1 1 1 1 
1 1 1 1 1 1 1 1 1 
1 1 1 1 1 1 1 1 1 
1 1 1 1 1 1 1 1 1 
1 1 1 1 1 1 1 1 1 
1 1 1 1 1 1 1 1 1 
1 1 1 1 1 1 1 1 1 
1 1 1 1 1 1 1 1 1 
1 1 1 1 1 1 1 1 1 
1 1 1 1 1 1 1 1 1 
1 1 1 1 1 1 1 1 1 
1 1 1 1 1 1 1 1 1 
1 1 1 1 1 1 1 1 1 
1 1 1 1 1 1 1 1 1 
1 1 1 1 1 1 1 1 1 
1 1 1 1 1 1 1 1 1 
1 1 1 1 1 1 1 1 1 
1 1 1 1 1 1 1 1 1 
1 1 1 1 1 1 1 1 1 
1 1 1 1 1 1 1 1 1 
1 1 1 1 1 1 1 1 1 
1 1 1 1 1 1 1 1 1 
1 1 1 1 1 1 1 1 1 
1 1 1 1 1 1 1 1 1 
1 1 1 1 1 1 1 1 1 
1 1 1 1 1 1 1 1 1 
1 1 1 1 1 1 1 1 1 
1 1 1 1 1 1 1 1 1 
1 1 1 1 1 1 1 1 1 
1 1 1 1 1 1 1 1 1 
1 1 1 1 1 1 1 1 1 
1 1 1 1 1 1 1 1 1 
1 1 1 1 1 1 1 1 1 
1 1 1 1 1 1 1 1 1 
1 1 1 1 1 1 1 1 1 
1 1 1 1 1 1 1 1 1 
1 1 1 1 1 1 1 1 1 
1 1 1 1 1 1 1 1 1 
1 1 1 1 1 1 1 1 1 
1 1 1 1 1 1 1 1 1 
1 1 1 1 1 1 1 1 1 
1 1 1 1 1 1 1 1 1 
1 1 1 1 1 1 1 1 1 
1 1 1 1 1 1 1 1 1 
1 1 1 1 1 1 1 1 1 
1 1 1 1 1 1 1 1 1 
1 1 1 1 1 1 1 1 1 
1 1 1 1 1 1 1 1 1 
1 1 1 1 1 1 1 1 1 
1 1 1 1 1 1 1 1 1 
1 1 1 1 1 1 1 1 1 
1 1 1 1 1 1 1 1 1 
1 1 1 1 1 1 1 1 1 
1 1 1 1 1 1 1 1 1 
1 1 1 1 1 1 1 1 1 
1 1 1 1 1 1 1 1 1 
1 1 1 1 1 1 1 1 1 
1 1 1 1 1 1 1 1 1 
1 1 1 1 1 1 1 1 1 
1 1 1 1 1 1 1 1 1 
1 1 1 1 1 1 1 1 1 
1 1 1 1 1 1 1 1 1 
1 1 1 1 1 1 1 1 1 
1 1 1 1 1 1 1 1 1 
1 1 1 1 1 1 1 1 1 
1 1 1 1 1 1 1 1 1 
1 1 1 1 1 1 1 1 1 
1 1 1 1 1 1 1 1 1 
1 1 1 1 1 1 1 1 1 
1 1 1 1 1 1 1 1 1 
1 1 1 1 1 1 1 1 1 
1 1 1 1 1 1 1 1 1 
1 1 1 1 1 1 1 1 1 
1 1 1 1 1 1 1 1 1 
1 1 1 1 1 1 1 1 1 
1 1 1 1 1 1 1 1 1 
1 1 1 1 1 1 1 1 1 
1 1 1 1 1 1 1 1 1 
1 1 1 1 1 1 1 1 1 
1 1 1 1 1 1 1 1 1 
1 1 1 1 1 1 1 1 1 
1 1 1 1 1 1 1 1 1 
1 1 1 1 1 1 1 1 1 
1 1 1 1 1 1 1 1 1 
1 1 1 1 1 1 1 1 1 
1 1 1 1 1 1 1 1 1 
1 1 1 1 1 1 1 1 1 
1 1 1 1 1 1 1 1 1 
1 1 1 1 1 1 1 1 1 
1 1 1 1 1 1 1 1 1 
1 1 1 1 1 1 1 1 1 
1 1 1 1 1 1 1 1 1 
1 1 1 1 1 1 1 1 1 
1 1 1 1 1 1 1 1 1 
1 1 1 1 1 1 1 1 1 
1 1 1 1 1 1 1 1 1 
1 1 1 1 1 1 1 1 1 
1 1 1 
NORMALS normals float
-0.320735 0.680544 0.658778 -0.322372 0.691543 0.646409 -0.337872 0.682377 0.648232 
-0.112594 0.5997 0.792264 -0.141797 0.693861 0.70601 0.0298105 0.486193 0.873343 
-0.0316857 0.599174 0.799992 0.245311 0.414761 0.87624 0.193089 0.454992 0.869309 
0.32068 0.368714 0.872476 -0.663868 0.446572 0.599878 -0.677578 0.473784 0.562509 
-0.736123 0.417148 0.53302 -0.127335 0.402427 0.906553 0.0658239 0.204992 0.976548 
0.0846738 0.126961 0.988287 0.258605 0.0962808 0.961173 0.507636 0.0468555 0.860297 
0.510782 0.0335485 0.859056 0.513697 0.0329379 0.857339 -0.66501 -0 0.746835 
-0.911647 -0 0.410974 0.0797232 -0 0.996817 0.215454 -0 0.976514 
0.151546 -0 0.98845 0.345536 -0.067754 0.935956 0.475978 -0.146626 0.867148 
0.512566 0.0173415 0.858473 -0.664786 -0.400641 0.630512 -0.73186 -0.369596 0.572521 
-0.132251 -0.309825 0.941551 0.0671087 -0.0652583 0.995609 0.146401 -0.0282399 0.988822 
0.424925 -0.110586 0.898448 0.50632 -0.155583 0.848195 -0.697869 -0.40335 0.591851 
-0.578534 -0.403626 0.708791 -0.405186 -0.325403 0.854363 -0.0703098 -0.154741 0.98545 
0.193714 -0.184158 0.963619 0.496253 -0.296011 0.816156 0.531604 -0.305017 0.790166 
-0.527991 -0.534055 0.660312 -0.455718 -0.578075 0.676869 -0.0974793 -0.498618 0.861323 
0.276283 -0.469592 0.838541 0.36139 -0.475738 0.801917 0.513901 -0.343644 0.786012 
-0.126046 -0.621367 0.773314 0.255493 -0.523654 0.812718 -0.307536 0.510162 0.803216 
-0.313712 0.553607 0.77143 -0.385509 0.531431 0.754297 0.146027 0.373979 0.915869 
0.112711 0.500618 0.858299 0.436195 0.274947 0.856819 -0.679101 0.237444 0.694581 
-0.683135 0.258175 0.683135 -0.694581 0.237444 0.679101 -0.124342 0.167263 0.97804 
0.397719 -0.00591337 0.917488 0.605598 -0.136506 0.783976 -0.684323 -0.204478 0.699922 
-0.700014 -0.203863 0.684412 -0.0742968 -0.158611 0.984542 0.551902 -0.179467 0.814369 
0.653086 -0.212183 0.72695 -0.685281 -0.219068 0.694549 -0.298268 -0.441692 0.846135 
-0.156868 -0.438088 0.885139 0.394963 -0.412128 0.821069 0.523946 -0.355733 0.773909 
-0.139485 -0.43183 0.891104 -0.0999085 0.436768 0.894009 -0.248311 0.583097 0.773524 
-0.45124 0.66388 0.59636 0.323058 0.191302 0.926843 0.113537 0.374775 0.920138 
0.412914 0.124042 0.902284 -0.317958 0.729349 0.605766 -0.44507 0.742596 0.500463 
-0.397388 0.789624 0.467522 -0.0656662 0.522749 0.849954 -0.453389 0.664602 0.593921 
0.168737 0.247209 0.954157 0.44551 0.0536837 0.893666 0.518583 0.00237413 0.855024 
-0.686463 0.674758 0.271055 -0.685614 0.683923 0.249366 -0.699978 0.669149 0.249541 
-0.348856 0.8993 0.263741 -0.364796 0.838088 0.405626 0.408606 0.251346 0.87742 
0.54513 0.0501771 0.836849 0.607283 -0.00397582 0.794475 -0.950159 0.247761 0.189242 
0.616227 -0 0.787569 0.666288 -0.00710383 0.745661 -0.964539 0.0632218 0.256256 
0.500199 -0.16959 0.849141 0.564671 -0.121417 0.816336 0.640267 -0.0990435 0.761741 
-0.878605 -0.163053 0.448851 0.528867 -0.217199 0.820442 0.55778 -0.326952 0.762879 
0.587416 -0.330594 0.738681 -0.732046 -0.486923 0.476461 -0.762439 -0.474708 0.439704 
0.602923 -0.379017 0.702018 0.598291 -0.451793 0.661763 0.575569 -0.377753 0.725274 
-0.751054 -0.518542 0.408695 -0.565782 -0.589502 0.576522 -0.706394 -0.62 0.341478 
0.540953 -0.421413 0.727861 0.634373 -0.39902 0.662082 0.627316 -0.407651 0.663547 
-0.652512 -0.635509 0.412741 -0.334817 -0.738169 0.585666 -0.441679 -0.70535 0.554438 
0.0723789 -0.672924 0.736163 0.437186 -0.518251 0.73504 0.469847 -0.507713 0.72213 
-0.343171 -0.718183 0.605348 0.01479 -0.704027 0.710019 0.42439 -0.541399 0.725796 
-0.431647 0.687864 0.583544 -0.442318 0.694358 0.567647 -0.518867 0.686642 0.509214 
0.0329999 0.677068 0.735181 0.0245414 0.710737 0.70303 0.604466 0.540356 0.585351 
0.601606 0.550077 0.57921 0.642706 0.524037 0.55885 -0.767964 0.528949 0.36117 
-0.78593 0.546272 0.289657 -0.817818 0.505648 0.274763 0.731374 0.129204 0.669626 
0.939643 0.0590912 0.337016 -0.966604 0.165307 0.195831 0.810499 -0.280434 0.514245 
0.872978 -0.274655 0.40308 -0.971377 -0.0733034 0.225949 0.825072 -0.265847 0.49858 
0.837111 -0.279564 0.4702 -0.744398 -0.261621 0.61435 -0.897736 -0.113142 0.425756 
0.521669 -0.37628 0.765686 0.802704 -0.156974 0.575348 -0.650416 -0.000180409 0.759579 
-0.756963 0.0829201 0.648176 -0.0882621 -0.317291 0.944212 0.481614 -0.278846 0.830839 
0.667066 -0.135816 0.732515 -0.400133 0.317458 0.859717 -0.632924 0.41541 0.653332 
0.093288 -1.81452e-08 0.995639 0.509349 -0.108585 0.853682 0.623155 -0.111948 0.774045 
-0.496495 0.643343 0.582755 -0.656899 0.561577 0.503105 -0.647198 0.661682 0.378565 
0.0045908 0.427429 0.904037 0.344873 0.0985112 0.933466 0.625519 -0.0403698 0.779164 
0.702571 -0.0667453 0.708477 -0.457541 0.666723 0.588333 -0.656964 0.722168 0.216501 
-0.607806 0.777335 0.162242 0.485842 0.00781579 0.874012 0.678478 -0.0820744 0.730021 
0.745433 -0.089426 0.660555 -0.468276 0.842191 0.267268 -0.510068 0.843622 0.167729 
-0.512307 0.848938 0.129788 -0.555394 0.818129 0.149006 0.552793 -0.0725646 0.830153 
0.70699 -0.230208 0.668707 0.717747 -0.230742 0.656961 -0.699841 0.677457 -0.226437 
-0.711319 0.665501 -0.226128 -0.502893 0.862835 -0.051131 0.653213 -0.0836015 0.752545 
0.697399 -0.216639 0.683156 0.711864 -0.235301 0.661727 -0.917077 0.398264 -0.0188396 
0.723779 -0.0505056 0.688181 0.761425 -0.130636 0.634954 -0.807091 0.357353 0.470003 
0.772855 -0.128702 0.621395 0.842248 -0.177668 0.508972 -0.75813 -0.0244185 0.651646 
-0.763458 0.193304 0.616251 -0.667495 0.00383024 0.744604 0.782669 -0.409036 0.469169 
0.794743 -0.414203 0.443643 -0.659731 -0.181898 0.729156 -0.614827 -0.369847 0.696564 
0.63912 -0.523037 0.563879 0.687787 -0.547758 0.476351 0.783245 -0.433011 0.446127 
-0.605349 -0.459468 0.649955 -0.607066 -0.460754 0.647439 0.66093 -0.402669 0.633269 
0.706132 -0.464795 0.534175 0.687953 -0.517797 0.508535 -0.597438 -0.337725 0.72733 
-0.527052 -0.0869527 0.845373 0.717761 -0.504641 0.479746 0.730733 -0.515215 0.447865 
-0.297686 0.254571 0.920096 -0.353168 0.221099 0.909059 -0.389782 0.273797 0.879264 
-0.0678684 -0.0188412 0.997516 -0.0671055 -0.464908 0.882812 0.0407619 -0.705914 0.707124 
0.41994 -0.754527 0.50432 0.469931 -0.754937 0.457422 0.721022 -0.537838 0.436873 
-0.173982 -0.290439 0.940944 -0.41249 -0.196457 0.889526 0.125502 -0.343241 0.930825 
0.318504 -0.416504 0.851516 0.309658 -0.419572 0.853271 0.220291 -0.691677 0.68779 
0.439653 -0.765781 0.469345 -0.150866 -0.449204 0.880599 0.1157 -0.480662 0.86924 
-0 0.7529 0.658135 -0 0.798999 0.601332 -0.571747 0.669444 0.474288 
0.600265 0.652072 0.463124 -0.579702 0.665747 0.469815 -0.846666 0.520727 0.109544 
0.610137 0.646192 0.458441 0.945745 0.244202 0.214319 -0.868195 0.479181 -0.12893 
-0.877015 0.447707 -0.174368 0.997783 0.00894913 0.0659408 -0.974181 0.186176 -0.127707 
0.982906 -0.0939218 0.158347 -0.999592 0.0285475 -0 0.853357 -0.228858 0.468408 
0.933548 -0.0985199 0.344647 -0.990997 0.0901193 0.0990076 0.85408 -0.0776719 0.514309 
0.903553 -0.0311788 0.42734 -0.915579 0.338013 0.217859 0.818447 -0.0801069 0.568971 
0.89176 -0.0672119 0.447489 -0.785209 0.494023 0.373347 -0.844402 0.463493 0.268625 
-0.825898 0.486507 0.284962 0.818437 -0.209445 0.535064 0.851144 -0.219904 0.47665 
-0.815898 0.564368 0.125692 0.830405 -0.245394 0.500208 0.832812 -0.243253 0.497245 
-0.764394 0.642497 0.0538387 -0.643381 0.765446 -0.0123645 0.877019 -0.179376 0.445715 
-0.564149 0.80312 -0.191661 -0.580505 0.786313 -0.211484 -0.571889 0.81886 -0.0490985 
0.908994 -0.172066 0.379636 -0.701778 0.668949 -0.244981 -0.62524 0.651724 -0.429338 
-0.618512 0.6983 -0.360305 0.776004 -0.250038 0.579051 0.873299 -0.207559 0.440758 
-0.647471 0.597763 -0.472716 -0.622685 0.701192 -0.347266 0.821002 -0.337976 0.460139 
0.83174 -0.353279 0.428256 -0.437026 0.36129 0.823698 -0.428543 0.395805 0.812213 
-0.463043 0.359305 0.810242 -0.260264 0.523085 0.811569 -0.158797 0.682697 0.713238 
-0.713483 0.492564 0.498319 -0.400284 0.903486 0.153248 0.890623 -0.374736 0.257612 
0.837769 -0.368624 0.402814 -0.516545 -0.118782 0.847981 -0.561517 -0.11541 0.819378 
-0.453205 0.0338133 0.890765 0.884021 -0.411991 0.220841 -0.535012 -0.221219 0.815368 
-0.517408 -0.302388 0.800531 -0.476194 -0.214884 0.852681 -0.574555 -0.31821 0.754075 
0.784086 -0.517694 0.342347 0.812823 -0.495744 0.305871 -0.508786 -0.309489 0.803339 
-0.534722 -0.325913 0.77965 -0.377708 -0.235806 0.895395 -0.583615 -0.437615 0.684022 
0.737511 -0.534195 0.413175 0.757485 -0.549109 0.353123 -0.56097 -0.278533 0.779572 
-0.590726 -0.123631 0.797345 -0.470452 0.0387466 0.881575 -0.397289 0.122661 0.909459 
0.730574 -0.639391 0.239668 0.748998 -0.571053 0.336007 -0.584716 0.228613 0.778359 
-0.706112 0.121435 0.69761 0.669185 -0.720999 0.179865 0.710447 -0.67641 0.194251 
-0.525557 -0.139994 0.839161 -0.768967 -0.073983 0.634994 0.333651 -0.421444 0.843245 
0.536218 -0.678434 0.502193 0.614788 -0.702254 0.358993 0.639432 -0.742719 0.198735 
-0.373908 -0.603787 0.704013 -0.493497 -0.572125 0.655083 -0.0797539 -0.675279 0.733238 
0.123997 -0.695006 0.708231 0.44407 -0.709876 0.546698 0.482327 -0.71559 0.505265 
0.606375 -0.683666 0.406092 -0.368443 -0.644767 0.66972 -0.0619403 -0.718037 0.693243 
0.167766 -0.741539 0.649596 0.453029 -0.7233 0.521155 -0.581113 0.66475 0.469484 
-0.667414 0.630365 0.396481 -0.84391 0.441714 0.304475 0.0760219 0.901156 0.426777 
0.611023 0.647863 0.45489 0.741545 0.648151 0.173235 0.850295 0.508056 0.137399 
-0.966038 0.250287 0.0642487 0.991163 0.127331 0.0371965 -0.878771 0.43689 -0.192063 
-0.910264 0.365128 -0.195196 1 -0 -0 -0.892844 0.389668 -0.225806 
-0.904015 0.362622 -0.22641 0.999592 -0 0.0285475 -0.98521 0.158719 -0.0645766 
0.995891 -0 0.0905643 -0.988822 0.146401 0.0282399 0.992936 -0 0.118653 
-0.904084 0.415649 0.0993378 0.992537 -0.028346 0.118605 -0.866795 0.485006 0.115914 
-0.864027 0.489655 0.117025 0.977926 -0.0934459 0.186892 -0.846047 0.526224 0.0853952 
0.851129 -0.239412 0.467185 0.925311 -0.164634 0.341606 -0.791951 0.607021 0.0658707 
-0.701391 0.712775 -0.00124581 0.86022 -0.246597 0.446331 0.866364 -0.25602 0.428796 
-0.599727 0.768037 -0.224603 -0.652407 0.725551 -0.218954 -0.665637 0.74326 -0.0670266 
0.871048 -0.257404 0.418352 0.857915 -0.267392 0.438729 -0.65227 0.65001 -0.389911 
-0.678811 0.648753 -0.343999 -0.656728 0.707051 -0.262274 0.916567 -0.24073 0.319302 
-0.188442 0.756683 0.626035 -0.162625 0.7805 0.603634 -0.285421 0.738384 0.611002 
0.215465 0.892922 0.395305 -0.620197 0.598278 -0.507364 -0.643135 0.587348 -0.491324 
-0.695731 0.606123 -0.385452 0.881573 -0.405818 0.241124 -0.763397 0.315425 0.563678 
-0.743988 0.384832 0.546247 -0.797137 0.315219 0.514985 0.374958 0.885728 0.273665 
0.278926 0.911266 -0.302976 -0.405642 0.696496 -0.591902 0.853921 -0.455128 0.252343 
0.847268 -0.462361 0.261457 -0.777954 -0.0503447 0.626302 -0.858461 -0.0263573 0.512201 
0.920903 -0.34864 0.17432 -0.710606 -0.30357 0.634732 -0.729148 -0.296808 0.616643 
-0.536657 -0.334958 0.774469 0.812507 -0.508738 0.284637 0.846223 -0.47977 0.231793 
-0.707235 -0.315971 0.63244 -0.600656 -0.403148 0.690424 -0.578324 -0.395059 0.713772 
0.777363 -0.590461 0.21694 0.824146 -0.516586 0.232212 -0.594482 -0.356367 0.720829 
-0.642471 -0.195926 0.74084 -0.616126 -0.304415 0.726443 0.705286 -0.649393 0.28436 
0.730015 -0.62446 0.277718 -0.734882 0.0673569 0.674842 -0.73454 -0.0857219 0.673129 
0.65409 -0.722286 0.224654 0.659404 -0.704858 0.26146 -0.779853 -0.0762032 0.621307 
-0.838041 -0.185818 0.51299 0.712818 -0.681403 0.166075 0.685243 -0.716836 0.128796 
-0.732054 -0.527822 0.430699 -0.768069 -0.526327 0.364759 0.666582 -0.658556 0.349246 
0.703895 -0.646386 0.294477 -0.737552 -0.578496 0.348368 -0.42466 -0.817469 0.389112 
-0.45715 -0.815585 0.354732 -0.0438721 -0.822863 0.566544 0.272876 -0.809785 0.519409 
0.370081 -0.79898 0.473996 0.545056 -0.725564 0.420084 -0.42974 -0.829256 0.357292 
-0.0429682 -0.900513 0.432702 0.288263 -0.835465 0.46787 -0.52375 0.769609 0.365223 
-0.514155 0.786414 0.342342 -0.550463 0.758596 0.348599 0.112541 0.91468 0.388194 
0.250229 0.950799 0.182663 0.431529 0.890286 0.145509 -0.873651 0.287652 0.392417 
0.795831 0.605031 0.0243153 0.886462 0.46265 0.0118655 -0.916786 0.0867079 0.389853 
0.992936 0.118653 -0 -0.945777 0.181699 0.269242 1 -0 -0 
-0.931749 0.338292 0.131918 -0.926816 0.362945 0.0963464 1 -0 -0 
-0.959627 0.268495 0.0838227 1 -0 -0 -0.95332 0.240806 0.182189 
1 -0 -0 -0.858326 0.438167 0.266994 1 -0 -0 
-0.84733 0.46526 0.256055 -0.854327 0.470574 0.220646 0.999592 -0 0.0285475 
-0.817661 0.516469 0.254344 0.995488 -0.0284303 0.0905277 -0.800071 0.549263 0.241239 
-0.750119 0.6495 0.124384 0.974838 -0.122405 0.186302 -0.726629 0.684836 0.0548651 
-0.714255 0.69893 -0.0365548 0.879689 -0.281243 0.38347 0.927499 -0.273726 0.254598 
-0.728383 0.678582 -0.094786 -0.757696 0.631845 -0.163304 0.9063 -0.407672 0.11146 
0.907623 -0.396289 0.138478 -0.700287 0.577667 0.419404 -0.702897 0.611656 0.36306 
-0.754306 0.553312 0.353367 0.0611572 0.905123 0.420728 0.720572 0.683074 0.119102 
-0.803475 0.457421 -0.381043 -0.796868 0.442393 -0.411448 0.913011 -0.39904 0.0847193 
-0.954724 0.223646 0.196175 0.728253 0.676537 0.109295 0.451273 0.828439 -0.331725 
0.538569 0.787561 -0.299485 -0.298651 0.736179 -0.607328 -0.517573 0.569991 -0.638145 
0.845638 -0.473168 0.246999 0.856622 -0.466065 0.221319 -0.980092 0.0642411 0.187865 
0.486514 0.807701 -0.333052 -0.178467 0.756756 -0.628864 0.895019 -0.430062 0.118267 
0.859712 -0.469651 0.200806 -0.935619 -0.0947664 0.340053 0.872708 -0.483792 0.0657759 
-0.719777 -0.350337 0.599321 -0.849618 -0.275318 0.449833 0.83611 -0.538967 0.102148 
0.844489 -0.529857 0.078036 -0.73226 -0.425861 0.531448 -0.605868 -0.328868 0.72441 
-0.730745 -0.426883 0.532712 0.756873 -0.595844 0.268537 0.787782 -0.566438 0.241969 
-0.742706 -0.216821 0.633543 -0.774147 -0.363026 0.518563 0.608746 -0.766999 0.202832 
0.603494 -0.77763 0.176314 0.765536 -0.594109 0.246961 -0.829238 -0.396379 0.394015 
-0.825746 -0.431071 0.363761 0.738773 -0.672633 0.0421784 0.673143 -0.739334 0.0162633 
0.580901 -0.798215 0.159396 -0.819029 -0.460357 0.342437 -0.740548 -0.661989 0.115581 
0.748347 -0.597784 0.287455 0.7822 -0.569246 0.253224 -0.683772 -0.728844 0.0352414 
-0.539131 -0.836738 -0.0959616 0.521761 -0.781653 0.341738 0.552051 -0.778953 0.297442 
0.761945 -0.591322 0.264155 -0.485752 -0.867397 -0.108011 -0.158981 -0.986837 0.0296142 
0.165658 -0.968653 0.18512 0.506351 -0.810656 0.294016 -0.389034 0.914063 0.114639 
-0.561182 0.814588 0.146702 0.336501 0.94147 0.0200518 0.526518 0.850157 -0.00352224 
-0.855085 0.369284 0.36395 -0.839173 0.434036 0.327721 -0.85419 0.389537 0.344414 
0.803311 0.592611 -0.059186 0.887036 0.456835 -0.0668558 -0.889234 0.0982853 0.44677 
-0.904084 0.0993378 0.415649 0.992537 0.118605 -0.028346 -0.922059 0.131983 0.363851 
-0.910283 0.0546819 0.410359 1 -0 -0 -0.908299 0.178212 0.378463 
1 -0 -0 -0.891307 0.239518 0.384972 1 -0 -0 
-0.845751 0.313526 0.431747 1 -0 -0 -0.833407 0.441818 0.332009 
-0.824917 0.358142 0.437317 -0.811237 0.413457 0.413457 1 -0 -0 
-0.798651 0.44759 0.402269 1 -0 -0 -0.801486 0.50564 0.319292 
-0.787425 0.458644 0.411834 -0.789673 0.463074 0.402467 1 -0 -0 
-0.782213 0.547911 0.296539 0.995891 -0.0905643 -0 -0.774735 0.579804 0.252216 
-0.764025 0.640485 0.0777499 0.935956 -0.345536 -0.067754 -0.803368 0.595466 -0.00450251 
-0.858297 0.507639 -0.0750248 0.885139 -0.438088 -0.156868 0.887054 -0.44029 -0.138851 
-0.751972 0.658664 0.0264707 -0.871576 0.490099 0.0125695 0.0407738 0.990818 0.128911 
0.733865 0.669017 0.117724 0.771233 0.613664 0.169164 0.803573 0.571151 0.167505 
-0.828612 0.392891 -0.398797 -0.926338 0.212132 -0.311284 0.953586 -0.294561 -0.0625038 
-0.983574 0.180507 -0 0.782404 0.622608 0.0142776 -0.792738 0.211504 -0.571692 
-0.867059 0.115745 -0.484575 0.899651 -0.43661 -0 -0.98874 0.149641 -0 
0.715382 0.696684 -0.0534724 0.280063 0.792809 -0.541312 0.435665 0.796695 -0.418895 
-0.550504 0.345776 -0.759858 -0.628542 0.309172 -0.713686 0.870005 -0.493043 -0 
0.869335 -0.494224 -0 -0.999691 -0 0.0248406 0.387104 0.784151 -0.485034 
-0.454881 0.421237 -0.784629 0.870005 -0.493043 -0 -0.968564 -0.23119 0.0918452 
0.867891 -0.496755 -0 0.858602 -0.512643 -0 -0.733395 -0.427427 0.528619 
-0.896242 -0.382958 0.223816 0.823284 -0.567051 -0.0256377 -0.831635 -0.466255 0.301646 