# vtk DataFile Version 4.0
vtk output
ASCII
DATASET POLYDATA
POINTS 1632 float
20 4 -12.2835 20 3.62978 -12 20.7256 4 -12 
18 4 -12.4516 18 3.51308 -12 16 4 -12.3984 
16 3.60162 -12 14.3331 4 -12 22 6 -12.3394 
22 5.17329 -12 22.5997 6 -12 20 6 -12.9141 
18 6 -13 16 6 -13.0859 14 4.12016 -12 
14 6 -13.0828 12.0173 6 -12 22 8 -12.5997 
23 8 -12 20 8 -13 18 8 -13 
16 8 -13.2942 14 8 -13.7381 12 6.03464 -12 
12 8 -12.7091 11.4437 8 -12 22 10 -12.5997 
22.9523 10 -12 20 10 -13 18 10 -13 
16 10 -13.2942 14 10 -13.6456 12 10 -12.1971 
11.8579 10 -12 22 12 -12.5997 22.8624 12 -12 
20 12 -13 18 12 -13 16 12 -13 
14 12 -12.4898 13.4655 12 -12 12 10.2072 -12 
22 14 -12.2835 22.3702 14 -12 20 14 -12.9141 
18 14 -12.9141 16 14 -12.4141 15.3656 14 -12 
14 12.6345 -12 22 14.5694 -12 20.66 16 -12 
20 16 -12.3394 18 16 -12.2835 17.5039 16 -12 
16 14.6676 -12 20 16.4833 -12 18 16.3702 -12 
30 -14 -10.2835 30 -14.3702 -10 31.5685 -14 -10 
29.5315 -14 -10 32 -12 -10.3984 32 -13.6669 -10 
32.3984 -12 -10 30 -12 -10.9141 28 -12.1387 -10 
28 -12 -10.0774 27.9226 -12 -10 32 -10 -10.0774 
32.0774 -10 -10 30 -10 -10.9141 28 -10 -10.4516 
27.5131 -10 -10 32 -9.83721 -10 30.9818 -8 -10 
30 -8 -10.6672 28 -8 -10.5563 27.2909 -8 -10 
30 -6 -10.1473 30.16 -6 -10 28 -6 -10.4858 
27.29 -6 -10 30 -5.70217 -10 28 -4.36573 -10 
28 0 -10.205 28 -0.580776 -10 28.3123 0 -10 
26 0 -10.5997 26 -1.06306 -10 24 0 -10.2835 
24 -0.387253 -10 23.4306 0 -10 28 2 -10.3394 
28.4833 2 -10 26 2 -10.9141 24 2 -10.9141 
22 0.930244 -10 22 2 -10.7536 20 2 -10.2807 
20 1.77856 -10 19.6016 2 -10 28 2.91244 -10 
27.3241 4 -10 26 4 -10.7058 24 4 -11.0859 
22 4 -11.5362 18 2.70585 -10 16 3 -10 
14 4 -11.792 14 3.40028 -10 13.1733 4 -10 
26 6 -10.5997 26.8624 6 -10 24 6 -11.2942 
12 6 -11.9688 12 5.17329 -10 11.4003 6 -10 
26 8 -10.5997 26.8267 8 -10 24 8 -11.4003 
11.0859 8 -10 26 10 -10.2835 26.3702 10 -10 
24 10 -11.3159 11.5362 10 -10 26 10.668 -10 
25.3215 12 -10 24 12 -11.1079 12.5469 12 -10 
12 10.9367 -10 24 14 -10.5704 24.5704 14 -10 
14 14 -10.5492 13.6346 14 -10 24 15 -10 
22 16 -11.2474 23.4067 16 -10 16 16 -10.9064 
15.184 16 -10 14 14.5068 -10 22 17.9821 -10 
20 18 -10.7091 21.9654 18 -10 18 18 -10.4389 
17.2341 18 -10 16 17.1151 -10 20 18.5564 -10 
18 18.3787 -10 32 -16 -8.18794 32 -16.1879 -8 
32.1528 -16 -8 30 -16 -8.43887 30 -16.4211 -8 
29.5418 -16 -8 32 -14 -9.86448 32.884 -14 -8 
28 -14 -8.4685 28 -14.3873 -8 27.7165 -14 -8 
33 -12 -8 27.0859 -12 -8 32.9141 -10 -8 
26.7059 -10 -8 32 -8 -8.77946 32.4638 -8 -8 
26 -8.39838 -8 26 -8 -8.31235 25.795 -8 -8 
32 -6.91296 -8 31.5792 -6 -8 26 -6 -8.82671 
25.4003 -6 -8 30 -4 -9.14003 31.0766 -4 -8 
28 -4 -9.87891 26 -4 -8.88427 25.1467 -4 -8 
30 -2 -8.77504 30.9165 -2 -8 28 -2 -9.53615 
26 -2 -9.41192 24 -2.48333 -8 24 -2 -8.45816 
23.5611 -2 -8 30 0 -8.89211 30.9634 0 -8 
22 0 -8.88488 22 -0.62347 -8 21.3215 0 -8 
30 2 -8.85326 30.8533 2 -8 20 1.10789 -8 
18.8624 2 -8 30 4 -8.22985 30.2298 4 -8 
28 4 -9.57918 18 2.59972 -8 16 3.08593 -8 
14 3.71648 -8 13.6298 4 -8 30 4.41438 -8 
29.14 6 -8 28 6 -9.0766 12 5.71929 -8 
11.7786 6 -8 28 8 -8.87337 28.6841 8 -8 
11.2474 8 -8 28 10 -8.37022 28.2835 10 -8 
11.326 10 -8 28 10.668 -8 26 12 -9.37653 
27.3765 12 -8 12 12 -8.89564 11.4406 12 -8 
26 14 -8.57038 26.5704 14 -8 12.4389 14 -8 
12 13.1329 -8 26 14.8713 -8 24 16 -9.40674 
25.2934 16 -8 14 16 -8.48614 13.5491 16 -8 
24 18 -8.08262 24.0669 18 -8 22 18 -9.98358 
16 18 -9.41122 14 18 -8.54689 13.1151 18 -8 
24 18.0697 -8 22 19.1844 -8 20 19.4436 -8 
18 19.9303 -8 16 20 -8.79105 17.8798 20 -8 
14 20 -8.91407 12 19.4306 -8 12 20 -8.28352 
11.6298 20 -8 16 22 -8.1421 16.2072 22 -8 
14 22 -8.59972 12 22 -8.1421 11.8029 22 -8 
16 22.1971 -8 14 22.8267 -8 12 22.1971 -8 
32 -17.8645 -6 32.884 -16 -6 30 -17.9859 -6 
28.4356 -16 -6 33 -14 -6 28 -15.3241 -6 
27.2941 -14 -6 33 -12 -6 27 -12 -6 
33 -10 -6 26.7059 -10 -6 32.9141 -8 -6 
26 -8.59972 -6 25.6606 -8 -6 32 -6 -7.32408 
32.7058 -6 -6 25.0859 -6 -6 32 -4 -6.86243 
32.5997 -4 -6 24.5997 -4 -6 32 -2 -6.82671 
32.5997 -2 -6 24 -3.13757 -6 23.1079 -2 -6 
32 0 -6.82671 32.5997 0 -6 22 -0.729839 -6 
21.2702 0 -6 32 2 -6.48333 32.3394 2 -6 
20 1.10789 -6 18.9095 2 -6 32 2.76595 -6 
31.4531 4 -6 18 2.68415 -6 16 3.5859 -6 
14 4 -7.5039 15.3324 4 -6 30 6 -6.84057 
30.5469 6 -6 14 5.14252 -6 12 6 -7.6517 
13.1994 6 -6 30 7.23405 -6 29.6606 8 -6 
12 7.57009 -6 11 8 -6 29.209 10 -6 
10 8.61749 -6 10 10 -6.68863 9.06306 10 -6 
28 12 -7.22128 28.791 12 -6 10 12 -6.81924 
8.94884 12 -6 28 14 -6.19708 28.1421 14 -6 
12 14 -7.62128 10 14 -6.36544 9.54184 14 -6 
28 14.2072 -6 26 16 -7.04961 26.7526 16 -6 
12 16 -6.91091 10.7442 16 -6 10 14.7659 -6 
26 16.9549 -6 25.1069 18 -6 12 18 -7.2474 
10.6475 18 -6 24 18.9663 -6 22 20 -6.24545 
22.2143 20 -6 20 20 -7.08168 18 20 -7.92669 
10 20 -6.37022 10 19.332 -6 9.71648 20 -6 
22 20.1357 -6 20 20.9064 -6 18.8039 22 -6 
18 22 -6.65706 10 22 -6.19708 9.8579 22 -6 
18 22.8039 -6 16 24 -6.37022 16.4961 24 -6 
14 24 -6.82671 12 24 -6.19708 11.8029 24 -6 
10 22.1971 -6 16 24.2835 -6 14 24.5997 -6 
12 24.1421 -6 32 -18 -5.66692 32 -18.3984 -4 
32.3984 -18 -4 30 -18 -5.97204 30 -18.6672 -4 
29.0182 -18 -4 33 -16 -4 28 -16 -5.08705 
28 -16.7795 -4 27.5362 -16 -4 33 -14 -4 
27.0859 -14 -4 33 -12 -4 27 -12 -4 
33 -10 -4 26.9141 -10 -4 33 -8 -4 
26 -8 -5 26.3394 -8 -4 33 -6 -4 
26 -7.40028 -4 25.2941 -6 -4 33 -4 -4 
24.5997 -4 -4 33 -2 -4 24 -3.04771 -4 
23.3159 -2 -4 33 0 -4 22 0 -4.35479 
22.1473 0 -4 32.9141 2 -4 22 0.159958 -4 
20 1.63456 -4 19.5418 2 -4 32 4 -4.76594 
32.3394 4 -4 18 3.29341 -4 16 4 -5.33243 
17.1425 4 -4 32 4.56709 -4 31.209 6 -4 
16 5.04077 -4 14 6 -5.14253 15.0408 6 -4 
30 8 -5.40028 30.7059 8 -4 14 7.20647 -4 
12 8 -4.87015 12.5299 8 -4 10 8 -5.43508 
10 7.26961 -4 11.5347 8 -4 8 8 -5.08909 
8 6.45087 -4 6 8 -4.07739 6 7.87004 -4 
5.92261 8 -4 30 10 -4.37378 30.205 10 -4 
12 8.22144 -4 8 10 -5.40028 6 10 -4.39838 
5.60162 10 -4 30 10.3984 -4 29.2941 12 -4 
8 12 -5.31585 6 12 -4.07739 5.92261 12 -4 
28.5997 14 -4 8 14 -4.7526 7.04513 14 -4 
6 12.1628 -4 28 14.9523 -4 27.3159 16 -4 
10 16 -5.37653 8.43887 16 -4 8 15.34 -4 
26 18 -4.16279 26.0774 18 -4 10 18 -5.3215 
8.85326 18 -4 26 18.0774 -4 24 19.3158 -4 
22.8665 20 -4 8.79105 20 -4 22 20.6235 -4 
20 22 -4.44227 20.3271 22 -4 9.31585 22 -4 
20 22.3271 -4 18 24 -4.4961 18.3702 24 -4 
11.1733 24 -4 10 22.8734 -4 18 24.2835 -4 
16 24.9141 -4 14 25 -4 12 24.5997 -4 
32 -18.3984 -2 32.3984 -18 -2 30 -18.9141 -2 
28 -18 -2.16279 28 -18.0774 -2 27.9226 -18 -2 
33 -16 -2 27 -16 -2 33 -14 -2 
26.7059 -14 -2 33 -12 -2 26.5997 -12 -2 
33 -10 -2 26.5997 -10 -2 33 -8 -2 
26.205 -8 -2 33 -6 -2 26 -7.62622 -2 
25.209 -6 -2 33 -4 -2 24.3394 -4 -2 
33 -2 -2 24 -3.43292 -2 23.209 -2 -2 
33 0 -2 22.2835 0 -2 33 2 -2 
22 0.370224 -2 20 2 -3.17329 20.5704 2 -2 
32.5997 4 -2 20 2.57038 -2 18 4 -2.87131 
18.5704 4 -2 32 5 -2 31.4003 6 -2 
18 4.59326 -2 16 6 -2.89765 16.7066 6 -2 
8 6 -3.22534 8 5.51424 -2 8.90706 6 -2 
6.64893 6 -2 31 8 -2 16 7.06589 -2 
14 8 -3.26183 15.2618 8 -2 10 6.72984 -2 
11.2419 8 -2 6 6.40492 -2 5.17753 8 -2 
30.7059 10 -2 14 9.4025 -2 12 8.73039 -2 
5 10 -2 30 11.4003 -2 29.6606 12 -2 
5.08593 12 -2 28.6841 14 -2 6 14 -2.98182 
5.33282 14 -2 28 15.0477 -2 27.4003 16 -2 
8 16 -3.63456 6 16 -2.15996 5.85274 16 -2 
26.3984 18 -2 8 18 -3.11573 6.85997 18 -2 
6 16.2978 -2 26 18.3984 -2 24 19.2942 -2 
22.7443 20 -2 8 20 -2.46838 7.71579 20 -2 
22 20.6121 -2 20.8921 22 -2 9.10789 22 -2 
8 20.3952 -2 20 23.2213 -2 19.2929 24 -2 
11.1733 24 -2 10 22.9634 -2 18 25 -2 
16 25.2942 -2 14 25.0859 -2 12 24.5997 -2 
32 -18.3984 0 32.3984 -18 0 30 -19 0 
28 -18.3984 0 27.6016 -18 0 33 -16 0 
26.7059 -16 0 33 -14 0 26 -14.3984 0 
26 -14 -0.398384 25.795 -14 0 33 -12 0 
26 -12 -1 25.4003 -12 0 33 -10 0 
26 -10 -1 25.4003 -10 0 33 -8 0 
26 -8 -1.62622 25.209 -8 0 33 -6 0 
24.5469 -6 0 33 -4 0 24 -4.93666 0 
24 -4 -1.17329 23.5362 -4 0 33 -2 0 
22.791 -2 0 33 0 0 22 -0.641037 0 
22 0 -1.19193 21.5792 0 0 33 2 0 
20.4208 2 0 32.5997 4 0 20 2.55056 0 
18.8921 4 0 32 5 0 31.4003 6 0 
18 5.09046 0 17.3159 6 0 10 6 -0.196909 
10 5.92262 0 10.0774 6 0 8 5.44365 0 
7.12635 6 0 31 8 0 16 8 -1.18341 
16.7059 8 0 11.3159 8 0 6 7.22054 0 
5.53615 8 0 30.8225 10 0 16 10 -0.500879 
16.3984 10 0 14 10 -1.24031 13.1733 10 0 
12 8.87337 0 5.08593 10 0 30 12 -0.155549 
30.0313 12 0 16 10.7681 0 14 10.7304 0 
5 12 0 30 12.0463 0 28.7925 14 0 
5 14 0 28 15.0512 0 27.3159 16 0 
5.08593 16 0 26.0774 18 0 6 18 -0.620672 
5.66056 18 0 26 18.0774 0 24 19 0 
22 19.84 0 22 20 -0.438699 21.84 20 0 
7.10789 20 0 6 18.4833 0 21 22 0 
9.03659 22 0 8 20.9634 0 20 24 -0.668038 
20.2835 24 0 11.5167 24 0 10 22.8921 0 
20 24.3702 0 18 25.9879 0 16 25.8789 0 
14 25.1094 0 12 24.3394 0 32 -18.0774 2 
32.0774 -18 2 30 -18.9141 2 28 -18.4516 2 
27.5131 -18 2 32.9141 -16 2 26.3394 -16 2 
33 -14 2 26 -15.4003 2 25.2941 -14 2 
33 -12 2 25 -12 2 33 -10 2 
24.9141 -10 2 33 -8 2 24.4638 -8 2 
33 -6 2 24 -7 2 24 -6 1.06334 
23.5362 -6 2 33 -4 2 23 -4 2 
33 -2 2 22.2835 -2 2 33 0 2 
22 -1.61275 2 20.7526 0 2 32.9141 2 2 
20 1.17717 2 20 2 0.912955 19.5362 2 2 
32.3394 4 2 18.791 4 2 32 4.59972 2 
31.2941 6 2 18 5.62622 2 17.795 6 2 
10 5.24187 2 10.6632 6 2 8 5.24187 2 
7.33684 6 2 30.9141 8 2 17.3817 8 2 
11.7165 8 2 6 8 1.17329 6.33944 8 2 
30.4638 10 2 17.1465 10 2 12 8.37022 2 
13.4296 10 2 6 8.59972 2 5.29415 10 2 
30 11 2 30 12 0.112178 29.5362 12 2 
16 11.6862 2 14 10.5704 2 5 12 2 
28.6841 14 2 5 14 2 28 14.9095 2 
27.0766 16 2 5.08593 16 2 26 17.14 2 
26 18 0.162787 24.6207 18 2 5.66056 18 2 
24 18.3394 2 22 18.8166 2 21.1157 20 2 
7.10789 20 2 6 18.4833 2 21 22 2 
9.12663 22 2 8 20.9634 2 20.5563 24 2 
12 24 1 12.5671 24 2 12 23.6606 2 
10 22.6842 2 20 24.7091 2 18 25.8789 2 
16 25.5362 2 14 24.791 2 32 -18 2.16279 
30.9818 -18 4 30 -18.6672 4 28 -18.5102 4 
27.398 -18 4 32 -16.7795 4 32.4638 -16 4 
26 -16.0463 4 26 -16 3.84445 25.9687 -16 4 
32.9141 -14 4 25.1775 -14 4 33 -12 4 
24.9141 -12 4 33 -10 4 24.4638 -10 4 
[...]
POINT_DATA 1632
SCALARS scalars unsigned_short
LOOKUP_TABLE default
1 1 1 1 1 1 1 1 1 
1 1 1 1 1 1 1 1 1 
1 1 1 1 1 1 1 1 1 
1 1 1 1 1 1 1 1 1 
1 1 1 1 1 1 1 1 1 
1 1 1 1 1 1 1 1 1 
1 1 1 1 1 1 1 1 1 
1 1 1 1 1 1 1 1 1 
1 1 1 1 1 1 1 1 1 
1 1 1 1 1 1 1 1 1 
1 1 1 1 1 1 1 1 1 
1 1 1 1 1 1 1 1 1 
1 1 1 1 1 1 1 1 1 
1 1 1 1 1 1 1 1 1 
1 1 1 1 1 1 1 1 1 
1 1 1 1 1 1 1 1 1 
1 1 1 1 1 1 1 1 1 
1 1 1 1 1 1 1 1 1 
1 1 1 1 1 1 1 1 1 
1 1 1 1 1 1 1 1 1 
1 1 1 1 1 1 1 1 1 
1 1 1 1 1 1 1 1 1 
1 1 1 1 1 1 1 1 1 
1 1 1 1 1 1 1 1 1 
1 1 1 1 1 1 1 1 1 
1 1 1 1 1 1 1 1 1 
1 1 1 1 1 1 1 1 1 
1 1 1 1 1 1 1 1 1 
1 1 1 1 1 1 1 1 1 
1 1 1 1 1 1 1 1 1 
1 1 1 1 1 1 1 1 1 
1 1 1 1 1 1 1 1 1 
1 1 1 1 1 1 1 1 1 
1 1 1 1 1 1 1 1 1 
1 1 1 1 1 1 1 1 1 
1 1 1 1 1 1 1 1 1 
1 1 1 1 1 1 1 1 1 
1 1 1 1 1 1 1 1 1 
1 1 1 1 1 1 1 1 1 
1 1 1 1 1 1 1 1 1 
1 1 1 1 1 1 1 1 1 
1 1 1 1 1 1 1 1 1 
1 1 1 1 1 1 1 1 1 
1 1 1 1 1 1 1 1 1 
1 1 1 1 1 1 1 1 1 
1 1 1 1 1 1 1 1 1 
1 1 1 1 1 1 1 1 1 
1 1 1 1 1 1 1 1 1 
1 1 1 1 1 1 1 1 1 
1 1 1 1 1 1 1 1 1 
1 1 1 1 1 1 1 1 1 
1 1 1 1 1 1 1 1 1 
1 1 1 1 1 1 1 1 1 
1 1 1 1 1 1 1 1 1 
1 1 1 1 1 1 1 1 1 
1 1 1 1 1 1 1 1 1 
1 1 1 1 1 1 1 1 1 
1 1 1 1 1 1 1 1 1 
1 1 1 1 1 1 1 1 1 
1 1 1 1 1 1 1 1 1 
1 1 1 1 1 1 1 1 1 
1 1 1 1 1 1 1 1 1 
1 1 1 1 1 1 1 1 1 
1 1 1 1 1 1 1 1 1 
1 1 1 1 1 1 1 1 1 
1 1 1 1 1 1 1 1 1 
1 1 1 1 1 1 1 1 1 
1 1 1 1 1 1 1 1 1 
1 1 1 1 1 1 1 1 1 
1 1 1 1 1 1 1 1 1 
1 1 1 1 1 1 1 1 1 
1 1 1 1 1 1 1 1 1 
1 1 1 1 1 1 1 1 1 
1 1 1 1 1 1 1 1 1 
1 1 1 1 1 1 1 1 1 
1 1 1 1 1 1 1 1 1 
1 1 1 1 1 1 1 1 1 
1 1 1 1 1 1 1 1 1 
1 1 1 1 1 1 1 1 1 
1 1 1 1 1 1 1 1 1 
1 1 1 1 1 1 1 1 1 
1 1 1 1 1 1 1 1 1 
1 1 1 1 1 1 1 1 1 
1 1 1 1 1 1 1 1 1 
1 1 1 1 1 1 1 1 1 
1 1 1 1 1 1 1 1 1 
1 1 1 1 1 1 1 1 1 
1 1 1 1 1 1 1 1 1 
1 1 1 1 1 1 1 1 1 
1 1 1 1 1 1 1 1 1 
1 1 1 1 1 1 1 1 1 
1 1 1 1 1 1 1 1 1 
1 1 1 1 1 1 1 1 1 
1 1 1 1 1 1 1 1 1 
1 1 1 1 1 1 1 1 1 
1 1 1 1 1 1 1 1 1 
1 1 1 1 1 1 1 1 1 
1 1 1 1 1 1 1 1 1 
1 1 1 1 1 1 1 1 1 
1 1 1 1 1 1 1 1 1 
1 1 1 1 1 1 1 1 1 
1 1 1 1 1 1 1 1 1 
1 1 1 1 1 1 1 1 1 
1 1 1 1 1 1 1 1 1 
1 1 1 1 1 1 1 1 1 
1 1 1 1 1 1 1 1 1 
1 1 1 1 1 1 1 1 1 
1 1 1 1 1 1 1 1 1 
1 1 1 1 1 1 1 1 1 
1 1 1 1 1 1 1 1 1 
1 1 1 1 1 1 1 1 1 
1 1 1 1 1 1 1 1 1 
1 1 1 1 1 1 1 1 1 
1 1 1 1 1 1 1 1 1 
1 1 1 1 1 1 1 1 1 
1 1 1 1 1 1 1 1 1 
1 1 1 1 1 1 1 1 1 
1 1 1 1 1 1 1 1 1 
1 1 1 1 1 1 1 1 1 
1 1 1 1 1 1 1 1 1 
1 1 1 1 1 1 1 1 1 
1 1 1 1 1 1 1 1 1 
1 1 1 1 1 1 1 1 1 
1 1 1 1 1 1 1 1 1 
1 1 1 1 1 1 1 1 1 
1 1 1 1 1 1 1 1 1 
1 1 1 1 1 1 1 1 1 
1 1 1 1 1 1 1 1 1 
1 1 1 1 1 1 1 1 1 
1 1 1 1 1 1 1 1 1 
1 1 1 1 1 1 1 1 1 
1 1 1 1 1 1 1 1 1 
1 1 1 1 1 1 1 1 1 
1 1 1 1 1 1 1 1 1 
1 1 1 1 1 1 1 1 1 
1 1 1 1 1 1 1 1 1 
1 1 1 1 1 1 1 1 1 
1 1 1 1 1 1 1 1 1 
1 1 1 1 1 1 1 1 1 
1 1 1 1 1 1 1 1 1 
1 1 1 1 1 1 1 1 1 
1 1 1 1 1 1 1 1 1 
1 1 1 1 1 1 1 1 1 
1 1 1 1 1 1 1 1 1 
1 1 1 1 1 1 1 1 1 
1 1 1 1 1 1 1 1 1 
1 1 1 1 1 1 1 1 1 
1 1 1 1 1 1 1 1 1 
1 1 1 1 1 1 1 1 1 
1 1 1 1 1 1 1 1 1 
1 1 1 1 1 1 1 1 1 
1 1 1 1 1 1 1 1 1 
1 1 1 1 1 1 1 1 1 
1 1 1 1 1 1 1 1 1 
1 1 1 1 1 1 1 1 1 
1 1 1 1 1 1 1 1 1 
1 1 1 1 1 1 1 1 1 
1 1 1 1 1 1 1 1 1 
1 1 1 1 1 1 1 1 1 
1 1 1 1 1 1 1 1 1 
1 1 1 1 1 1 1 1 1 
1 1 1 1 1 1 1 1 1 
1 1 1 1 1 1 1 1 1 
1 1 1 1 1 1 1 1 1 
1 1 1 1 1 1 1 1 1 
1 1 1 1 1 1 1 1 1 
1 1 1 1 1 1 1 1 1 
1 1 1 1 1 1 1 1 1 
1 1 1 1 1 1 1 1 1 
1 1 1 1 1 1 1 1 1 
1 1 1 1 1 1 1 1 1 
1 1 1 1 1 1 1 1 1 
1 1 1 1 1 1 1 1 1 
1 1 1 1 1 1 1 1 1 
1 1 1 1 1 1 1 1 1 
1 1 1 1 1 1 1 1 1 
1 1 1 1 1 1 1 1 1 
1 1 1 1 1 1 1 1 1 
1 1 1 1 1 1 1 1 1 
1 1 1 1 1 1 1 1 1 
1 1 1 1 1 1 1 1 1 
1 1 1 
NORMALS normals float
-0.215493 0.523549 0.824293 -0.182796 0.576289 0.796541 -0.258656 0.491967 0.831304 
-0.0304061 0.6034 0.796858 -0.00068357 0.718735 0.695284 0.118833 0.661148 0.740785 
0.130195 0.756435 0.64098 0.36314 0.718808 0.592827 -0.428796 0.25602 0.866364 
-0.398248 0.318803 0.860095 -0.449137 0.221278 0.865628 -0.184158 0.193714 0.963619 
-0.0564123 0.146227 0.987641 -0.0281807 0.240861 0.970151 0.404111 0.703446 0.584687 
0.222448 0.421623 0.879063 0.710945 0.456425 0.535008 -0.416739 0.0683194 0.906455 
-0.487768 0.046559 0.871731 -0.118605 0.028346 0.992537 -0.0905643 -0 0.995891 
-0.224058 0.0703655 0.972032 0.0982663 0.176782 0.979332 0.716323 0.449728 0.533504 
0.753261 0.0556451 0.655364 0.869156 0.0283533 0.493725 -0.427548 -0 0.903993 
-0.512416 -0.0237897 0.858408 -0.118653 -0 0.992936 -0.0905643 -0 0.995891 
-0.192639 -0.0966697 0.976496 0.166455 -0.31053 0.935876 0.789358 -0.4196 0.448163 
0.808327 -0.421494 0.411036 -0.447105 -0.0789227 0.890993 -0.557729 -0.102114 0.823718 
-0.118605 -0.028346 0.992537 -0 -0.0285475 0.999592 0.119403 -0.253025 0.960063 
0.480191 -0.55527 0.679037 0.5837 -0.569627 0.578636 0.792683 -0.445815 0.415816 
-0.506351 -0.294016 0.810656 -0.547709 -0.297929 0.781826 -0.165658 -0.18512 0.968653 
0.136941 -0.195228 0.97115 0.421157 -0.428304 0.799489 0.497611 -0.487133 0.717694 
0.555049 -0.556825 0.617954 -0.521761 -0.341738 0.781653 -0.318633 -0.483628 0.815216 
-0.211764 -0.477529 0.852714 0.257209 -0.511943 0.819609 0.332084 -0.54103 0.772662 
0.47376 -0.484704 0.735264 -0.196986 -0.536479 0.820601 0.263694 -0.556401 0.787962 
0.18724 0.526664 0.829196 0.192 0.572192 0.797328 -0.365333 0.488698 0.792279 
0.289422 0.5513 0.782498 -0.632494 0.0355342 0.77375 -0.551711 0.376682 0.744128 
-0.742733 0.0319393 0.668825 0.0644736 0.168221 0.983639 0.665779 0.336865 0.665779 
0.661929 0.32171 0.677018 0.676722 0.322923 0.66164 -0.671913 -0.276131 0.68723 
-0.68711 -0.276712 0.671796 -0.0750372 -0.0750372 0.994353 0.577342 0.1191 0.807769 
0.696574 0.146782 0.70231 -0.680316 -0.287707 0.674089 -0.532445 -0.332374 0.778479 
-0.289588 -0.211969 0.933385 0.408824 0.00799682 0.912578 0.575534 0.0545928 0.815954 
-0.48803 -0.359658 0.795282 -0.51864 -0.367659 0.771906 0.250829 -0.169486 0.953079 
0.433278 -0.114991 0.893894 -0.498418 -0.36475 0.786471 0.104375 -0.248318 0.963039 
-0.406849 0.196313 0.892152 -0.356424 0.170226 0.918687 -0.447756 0.178085 0.876242 
-0.0197443 0.374466 0.927031 0.0806144 0.425516 0.901353 0.297248 0.502118 0.812109 
0.320405 0.538608 0.779257 0.35185 0.561084 0.749258 -0.484168 -0.134551 0.864568 
-0.536619 -0.135711 0.83284 -0.158981 0.0296142 0.986837 0.0460683 0.22315 0.973695 
0.348294 0.615225 0.70724 0.13772 0.519925 0.843037 0.335589 0.788187 0.515889 
0.382798 0.791484 0.476465 0.374878 0.819714 0.433054 -0.519619 -0.203192 0.829885 
-0.499176 -0.223771 0.837108 -0.37592 -0.0972521 0.921535 -0.241477 0.119137 0.963066 
-0.29392 0.389352 0.872935 0.298159 0.92719 0.226761 0.204317 0.970926 0.124731 
0.422959 0.74004 0.522921 0.456802 0.886972 0.0679112 0.592688 0.803415 0.0569727 
-0.503566 -0.0297947 0.863443 -0.581323 -0.0723837 0.810447 -0.431156 0.0946939 0.897295 
0.717306 0.457378 0.525621 0.813977 0.57972 0.0369617 0.900263 0.432582 0.0489872 
-0.526666 -0.0750043 0.846757 -0.612778 -0.0869053 0.785462 -0.493028 0.00777973 0.869979 
0.99733 -0.035442 0.0638465 -0.564608 -0.254207 0.785237 -0.591322 -0.264155 0.761945 
-0.540345 -0.0732722 0.838247 0.916165 -0.380766 0.125132 -0.595623 -0.286416 0.750466 
-0.639615 -0.291393 0.711325 -0.637793 -0.162274 0.752919 0.802366 -0.463383 0.376146 
0.866289 -0.440775 0.235077 -0.663175 -0.3195 0.676845 -0.666325 -0.334697 0.666325 
0.690212 -0.537176 0.484819 0.724982 -0.515558 0.456729 -0.659104 -0.362165 0.659104 
-0.53668 -0.436496 0.722112 -0.633959 -0.400395 0.661649 0.582799 -0.540578 0.606729 
0.657764 -0.498958 0.564258 0.716362 -0.510195 0.475948 -0.424246 -0.6363 0.644312 
-0.0873758 -0.759793 0.644267 -0.417379 -0.641423 0.643716 0.251632 -0.732156 0.632953 
0.324886 -0.654749 0.682461 0.526553 -0.506716 0.682628 -0.0762827 -0.82279 0.563202 
0.210346 -0.751368 0.62546 -0.49035 0.613646 0.618866 -0.489104 0.619364 0.614139 
-0.538579 0.595791 0.595791 0.277176 0.712746 0.644334 0.287521 0.72135 0.630068 
0.385114 0.708916 0.590869 -0.542392 0.435051 0.718708 -0.93699 0.225168 0.267112 
0.743136 0.511849 0.430998 0.757838 0.526746 0.384993 0.791603 0.48944 0.365804 
-0.987639 0.00893832 0.156488 0.937165 0.272401 0.217991 -0.962224 -0.155015 0.223819 
0.921133 0.33627 0.19605 -0.785524 -0.366812 0.498399 -0.858349 -0.325827 0.396325 
0.884776 0.354642 0.302324 0.866686 0.31933 0.383254 0.880994 0.340606 0.328386 
-0.814026 -0.324356 0.481825 -0.783917 -0.30568 0.540401 0.802511 0.0950615 0.589016 
0.887471 0.160148 0.432143 -0.568933 -0.285132 0.771372 -0.717199 -0.153946 0.679652 
0.0658101 -0.258861 0.96367 0.654012 0.152488 0.740956 0.776727 0.324866 0.539591 
-0.558086 -0.053274 0.828071 -0.657662 -0.0261417 0.752859 -0.183105 0.0770859 0.980066 
0.228278 0.424376 0.876239 0.644242 0.624307 0.441806 0.556144 0.653393 0.513596 
0.613883 0.670579 0.416499 -0.640312 0.0201648 0.76785 -0.697174 -0.014996 0.716745 
0.56695 0.699707 0.434715 0.643562 0.715496 0.271832 0.643477 0.726733 0.240408 
-0.673124 -0.138134 0.726514 -0.72497 -0.152469 0.671693 0.639557 0.755002 0.144704 
0.564984 0.821352 0.0785672 -0.662417 -0.337516 0.668795 -0.68309 -0.33977 0.646486 
-0.536944 -0.275384 0.797405 0.466461 0.884506 0.00790964 0.299798 0.94035 -0.160817 
0.507236 0.798608 -0.323941 0.553613 0.765199 -0.328608 -0.680518 -0.347891 0.644877 
-0.708345 -0.296788 0.64044 -0.663844 -0.157665 0.731062 0.793544 0.483716 -0.369198 
0.818229 0.452755 -0.354281 -0.755812 -0.13377 0.640979 -0.807336 -0.190649 0.558445 
0.990331 0.132036 -0.0425587 -0.764905 -0.277496 0.581305 -0.789341 -0.273346 0.549748 
0.91124 -0.0509576 0.40871 -0.759453 -0.299578 0.577481 -0.645586 -0.327108 0.690087 
-0.704621 -0.333998 0.626063 0.797171 -0.341911 0.497611 0.742741 -0.195385 0.640438 
-0.660047 -0.377383 0.649554 -0.668632 -0.386532 0.635235 0.653129 -0.378359 0.655947 
0.690894 -0.305283 0.655338 -0.668167 -0.425407 0.610395 -0.658509 -0.396775 0.63948 
-0.679146 -0.451168 0.578972 0.707466 -0.234522 0.666701 0.680511 -0.148383 0.717557 
-0.633421 -0.591166 0.4993 -0.636264 -0.593222 0.49321 -0.422516 -0.639034 0.64274 
0.404338 -0.434569 0.804773 0.484994 0.126003 0.865392 0.525057 0.25344 0.812455 
-0.6299 -0.601345 0.491539 -0.294196 -0.836033 0.46314 -0.166256 -0.848705 0.502054 
-0.335024 -0.64105 0.690517 -0.207432 -0.323282 0.923288 -0.343464 -0.619504 0.705866 
0.132442 0.00732105 0.991164 0.549748 0.231193 0.8027 0.520613 0.185089 0.833489 
0.567636 0.190471 0.800943 -0.397494 -0.459707 0.794146 -0.417107 -0.466715 0.779872 
-0 -0.433102 0.901345 0.437325 -0.348668 0.828962 0.467251 -0.344701 0.814161 
-0.395071 -0.482256 0.781887 -0 -0.580116 0.814534 0.434963 -0.384123 0.814406 
-0.484415 0.748404 0.453027 -0.930386 0.280282 0.236271 0.359202 0.789668 0.497391 
0.728785 0.556241 0.399335 -0.998511 0.0385739 0.0385739 0.814523 0.486572 0.315911 
0.919978 0.350808 0.174855 -1 -0 -0 0.983472 0.17887 0.0280871 
-0.999185 -0.0285359 0.0285359 0.935956 0.345536 -0.067754 -0.982906 -0.0939218 0.158347 
0.889802 0.441653 -0.114872 0.889255 0.440125 -0.124563 -0.834899 -0.245413 0.492663 
-0.929863 -0.098131 0.354577 0.955062 0.295017 0.0286606 -0.823663 -0.073564 0.562289 
-0.893356 -0.0308269 0.44829 0.877137 0.462575 0.129054 -0.809298 -0.00655077 0.587362 
-0.889025 -0 0.457859 0.820172 0.564172 0.0950134 0.759128 0.650133 0.0324319 
-0.81059 -0.0581976 0.582715 -0.887036 -0.0668558 0.456835 0.715563 0.688835 -0.11609 
0.686681 0.713326 -0.140125 -0.814626 -0.246741 0.524884 -0.842041 -0.261928 0.471552 
0.650947 0.749934 -0.117762 0.602992 0.788861 -0.118736 -0.820084 -0.326701 0.469818 
-0.799292 -0.40737 0.441794 0.543018 0.825141 -0.155797 0.475212 0.785966 -0.395513 
0.536753 0.751422 -0.383747 0.509 0.72944 -0.456985 -0.759622 -0.391489 0.519336 
-0.800319 -0.407893 0.439447 0.60154 0.572957 -0.55666 0.776288 0.4802 -0.408392 
0.616605 0.547975 -0.565262 -0.805135 -0.349554 0.479134 -0.82077 -0.304265 0.483487 
0.592892 0.721606 -0.357441 0.551316 0.816962 0.169186 -0.861264 -0.231445 0.45239 
0.45799 0.565753 0.685689 0.628976 0.193897 0.752857 0.523453 0.167713 0.835386 
-0.765086 -0.316203 0.560945 -0.861957 -0.270333 0.428893 0.635597 -0.0779801 0.768072 
0.591967 -0.0876088 0.801187 -0.782249 -0.444312 0.43666 -0.794684 -0.445958 0.411823 
0.615279 -0.346562 0.708044 0.579644 -0.293962 0.76 0.589862 -0.298442 0.75033 
-0.785864 -0.46287 0.410084 -0.69414 -0.509951 0.508055 -0.723084 -0.563627 0.399341 
0.589109 -0.0832947 0.803749 0.620741 -0.16034 0.767445 0.606203 -0.266171 0.749447 
-0.696836 -0.585158 0.414741 -0.658604 -0.664471 0.353155 0.598047 0.292502 0.746178 
0.699225 0.201713 0.685854 -0.585667 -0.765442 0.266632 -0.389774 -0.850068 0.354206 
-0.423961 -0.844205 0.327985 -0.265343 -0.809238 0.524144 -0.348784 -0.632615 0.691483 
0.786009 0.159281 0.597344 0.775152 0.16738 0.609199 0.811483 0.14859 0.56517 
-0.411981 -0.845354 0.34007 -0.454229 -0.712766 0.534453 -0.569455 -0.559668 0.602074 
-0.568983 -0.498033 0.654386 0.808645 -0.342366 0.478413 0.822593 -0.345989 0.451256 
-0.56787 -0.562844 0.600608 -0.329327 -0.764011 0.554825 -0.386532 -0.753095 0.532391 
0.0205197 -0.804552 0.593527 0.420317 -0.786983 0.451654 0.451654 -0.786983 0.420317 
0.809259 -0.381695 0.446553 -0.323941 -0.798608 0.507236 0.030663 -0.888607 0.457644 
0.42284 -0.801506 0.42284 -0.488884 0.772397 0.405457 -0.56843 0.814073 0.119045 
-0.696764 0.707852 0.116044 0.357914 0.792031 0.494554 0.251988 0.936192 0.245044 
0.508868 0.784654 0.35408 -0.985919 0.162645 0.0388713 0.799528 0.478005 0.363685 
0.782771 0.496652 0.374976 0.852457 0.393605 0.344082 -1 -0 -0 
0.971171 0.156457 0.179853 -1 -0 -0 0.991343 0.0566238 0.118463 
-1 -0 -0 0.981797 0.187632 0.0294629 -0.999592 -0 0.0285475 
0.87898 0.458837 -0.129859 0.889255 0.440125 -0.124563 -0.995891 -0 0.0905643 
0.882327 0.457801 -0.109161 0.900578 0.432734 -0.0412318 -0.992936 -0 0.118653 
0.872708 0.483792 0.0657759 -0.992936 -0 0.118653 0.846439 0.53108 0.0386673 
0.834728 0.550261 -0.0210356 -0.992537 -0.028346 0.118605 0.71989 0.666447 -0.193927 
0.731957 0.652145 -0.197348 -0.965363 -0.184491 0.184491 0.716537 0.666908 -0.20447 
0.594133 0.751134 -0.287757 0.598906 0.743648 -0.297154 -0.831789 -0.440961 0.337166 
-0.858326 -0.438167 0.266994 0.606388 0.699704 -0.377768 0.515157 0.726732 -0.454395 
0.589038 0.665352 -0.45863 -0.852772 -0.454282 0.2577 -0.884364 -0.407102 0.228403 
0.5866 0.609516 -0.533284 0.610589 0.540047 -0.57925 0.591514 0.574285 -0.565958 
-0.835409 -0.303015 0.458556 -0.903957 -0.267377 0.333723 0.53661 0.595819 -0.597536 
0.22984 0.929292 -0.28912 0.134839 0.912998 -0.385036 0.164536 0.804589 0.570583 
-0.395059 0.852765 0.341644 -0.115541 0.986339 -0.117412 0.287473 0.38715 0.876056 
0.000277158 0.756313 0.65421 0.679182 0.328264 0.656471 0.678411 0.349569 0.646189 
0.692495 0.329064 0.642003 -0.849472 -0.346448 0.397958 -0.852745 -0.3622 0.376347 
-0.033289 0.968453 -0.246962 0.481841 0.0574709 0.874372 0.701836 -0 0.712338 
0.780806 -0 0.624774 -0.854118 -0.37887 0.356286 -0.887666 -0.39711 0.233139 
0.563855 -0.147982 0.812508 0.708175 -0.26375 0.654923 0.719534 -0.263974 0.642331 
-0.867303 -0.480795 0.128924 0.59268 -0.35224 0.724333 0.609466 -0.38453 0.693316 
0.707695 -0.275191 0.650721 -0.840184 -0.527155 0.127273 -0.822945 -0.547993 0.149883 
0.647421 -0.204967 0.734053 0.610919 -0.301842 0.731895 0.592488 -0.344786 0.728066 
-0.684639 -0.678925 0.265201 -0.688436 -0.679689 0.25314 0.729561 0.137481 0.669955 
0.725994 -0.061062 0.684984 -0.679788 -0.688536 0.252601 -0.531902 -0.843082 0.0793292 
-0.532853 -0.843028 0.0732989 0.873839 -0.127439 0.469217 -0.567626 -0.815433 0.113444 
-0.66285 -0.60872 0.435992 -0.688922 -0.623028 0.370434 0.854708 -0.486793 0.180296 
-0.688269 -0.606312 0.398336 -0.524302 -0.728286 0.441256 -0.542275 -0.736612 0.404154 
0.587386 -0.80278 0.102578 0.779449 -0.612624 0.130964 -0.497104 -0.767029 0.405653 
-0.189539 -0.942852 0.274054 0.0895956 -0.985238 0.145871 0.455142 -0.883749 0.108776 
-0.632894 0.774239 -0 -0.743113 0.669166 -0 0.0650464 0.992378 0.104669 
0.673588 0.682007 0.284861 0.664726 0.695352 0.273177 0.679293 0.680972 0.273564 
-0.987679 0.156494 -0 0.924914 0.298745 0.235127 -1 -0 -0 
0.932922 0.123276 0.338318 -1 -0 -0 0.908132 0.0313368 0.41751 
-1 -0 -0 0.915583 0.100601 0.389342 -1 -0 -0 
0.889135 0.358504 0.284452 -1 -0 -0 0.882854 0.385263 0.268592 
0.870859 0.450765 0.196 -1 -0 -0 0.837358 0.487444 0.247449 
-1 -0 -0 0.838271 0.494975 0.228695 0.863856 0.482435 0.144946 
-1 -0 -0 0.814476 0.567254 0.121871 -0.992537 -0.118605 0.028346 
0.795177 0.597355 0.104219 0.637919 0.729188 -0.247677 0.708351 0.694045 -0.128607 
-0.906455 -0.416739 0.0683194 0.695805 0.695805 -0.178078 0.643024 0.671456 -0.36833 
0.680649 0.669828 -0.296728 -0.884718 -0.461833 0.0631228 -0.907228 -0.417095 0.0544983 
0.686516 0.651911 -0.322037 0.647759 0.559814 -0.516737 0.701178 0.570447 -0.427715 
-0.0674095 0.885038 0.460613 -0.0899711 0.972002 0.217067 -0.345643 0.89659 0.276869 
0.424329 0.896444 0.127798 -0.974716 -0.205115 0.0886387 0.68552 0.472405 -0.553982 
0.446763 0.628091 -0.637107 0.577172 0.495378 -0.64921 -0.630773 0.732245 0.256792 
-0.61301 0.789974 -0.0126434 0.709617 0.701123 0.0697927 0.948011 0.309093 0.0757431 
-0.925311 -0.341606 0.164634 0.102514 0.731086 -0.67454 -0.532335 0.831257 -0.160096 
0.991451 0.028315 0.127368 -0.860568 -0.472366 0.190506 -0.84729 -0.499108 0.181635 
0.968898 -0.102192 0.225372 -0.841988 -0.537129 0.0504853 0.752915 -0.310839 0.580084 
0.887104 -0.201459 0.415284 -0.843308 -0.537191 0.0160315 -0.856133 -0.516755 -0 
0.595142 -0.320345 0.737011 0.716658 -0.340765 0.608507 0.737494 -0.333524 0.587251 
-0.732493 -0.680775 -0 0.70248 -0.200267 0.682946 0.711239 -0.364215 0.601238 
0.726269 -0.348809 0.592339 -0.663212 -0.748431 -0 -0.463425 -0.881242 -0.0929999 
-0.571748 -0.806754 -0.14917 0.817059 -0.402284 0.413016 0.795505 -0.467266 0.385791 
-0.67887 -0.724641 -0.118455 -0.795564 -0.590331 0.136338 0.762677 -0.643113 0.0687776 
0.796295 -0.498035 0.34333 -0.736499 -0.603298 0.305942 -0.635605 -0.686335 0.353482 
0.588758 -0.806234 -0.0578849 0.716825 -0.697252 0.00125289 -0.39779 -0.824329 0.402796 
-0.0118405 -0.960297 0.27873 0.208508 -0.977338 0.036548 0.4745 -0.877766 -0.0661571 
-0.651626 0.754753 -0.0757083 -0.754753 0.651626 -0.0757083 0 1 -0 
0.6291 0.772458 0.0868455 0.719642 0.688068 0.0931508 -0.987502 0.155063 -0.0282022 
0.888222 0.42197 0.181667 -1 -0 -0 0.868445 0.357977 0.34301 
0.874741 0.30314 0.378066 0.867149 0.335253 0.368318 -1 -0 -0 
0.884155 0.0724733 0.461539 0.904084 0.0993378 0.415649 -1 -0 -0 
0.88743 0.0807011 0.453823 0.89834 0.0539644 0.435974 -1 -0 -0 
0.884782 0.337726 0.321096 0.875036 0.225994 0.428063 -1 -0 -0 
0.822251 0.402432 0.402432 -1 -0 -0 0.82351 0.422043 0.379092 
0.833002 0.467892 0.29527 0.847078 0.416887 0.329641 -1 -0 -0 
0.856268 0.457328 0.240118 -1 -0 -0 0.801822 0.518242 0.297502 
0.799971 0.564111 0.204513 0.784927 0.530379 0.320292 -0.992537 -0.118605 -0.028346 
0.78948 0.572302 0.221791 -0.906455 -0.416739 -0.0683194 0.783759 0.597555 0.169265 
0.765736 0.641919 -0.0398571 -0.885134 -0.46205 -0.0552136 -0.908132 -0.41751 -0.0313368 
0.792701 0.587559 -0.162482 0.833476 0.492958 -0.24962 -0.567063 0.761144 0.314801 
-0.556367 0.767677 0.318006 -0.5727 0.75701 0.314563 0.198445 0.977454 0.0721324 
0.464945 0.878278 -0.111599 -0.98437 -0.173855 -0.0281128 0.744234 0.348051 -0.570068 
0.855968 0.241374 -0.457228 -0.78346 0.610749 0.114784 0.798118 0.521465 -0.301796 
0.866777 0.406098 -0.289452 -0.96354 -0.259242 -0.0662064 0.622388 0.406837 -0.668668 
0.710608 0.355971 -0.606894 -0.147433 0.836682 -0.527471 -0.537381 0.832202 -0.136604 
-0.749168 0.659641 0.0601799 0.982906 0.158347 -0.0939218 -0.858493 -0.512578 -0.0159236 
-0.859056 -0.510782 -0.0335485 0.514578 0.568879 -0.64155 -0.410877 0.883925 -0.223284 
0.999185 0.0285359 0.0285359 -0.857339 -0.513697 -0.0329379 -0.802533 -0.596608 -0 
0.994645 -0.0284062 0.099372 -0.806586 -0.590554 -0.0257922 -0.819109 -0.568436 -0.0770735 